# vtk DataFile Version 4.1
vtk output
ASCII
DATASET POLYDATA
POINTS 94 float
0.0401572 1.62266 0 0.108523 1.54481 0 0.14455 1.42329 0 
0.153793 1.26646 0 0.149659 1.11155 0 0.147065 0.956299 0 
0.173011 0.826137 0 0.25985 0.714852 0 0.379442 0.659603 0 
0.499068 0.628666 0 0.648831 0.602371 0 0.798981 0.58784 0 
0.949537 0.574218 0 1.1004 0.546127 0 1.1909 0.503696 0 
1.26879 0.411106 0 1.25111 0.258675 0 1.18725 0.198896 0 
1.06707 0.157228 0 0.916434 0.15298 0 0.76658 0.168929 0 
0.617341 0.19269 0 0.468576 0.214101 0 0.349847 0.225551 0 
0.231428 0.203968 0 0.172695 0.118691 0 0.166014 -0.00424996 0 
0.194323 -0.13061 0 0.233118 -0.235686 0 0.279955 -0.354027 0 
0.321571 -0.456609 0 0.377369 -0.572285 0 0.424629 -0.664322 0 
0.469069 -0.754848 0 0.526477 -0.865038 0 0.580982 -0.962897 0 
0.626476 -1.05062 0 0.669 -1.16612 0 0.676703 -1.28035 0 
0.639515 -1.3651 0 0.526794 -1.41581 0 0.409633 -1.37256 0 
0.332044 -1.29453 0 0.270403 -1.20318 0 0.220327 -1.11167 0 
0.175297 -1.01967 0 0.118743 -0.917269 0 0.0314455 -0.832842 0 
-0.0683936 -0.877258 0 -0.124998 -0.963564 0 -0.172012 -1.05228 0 
-0.230638 -1.15921 0 -0.289593 -1.24676 0 -0.357781 -1.31831 0 
-0.467343 -1.37004 0 -0.585848 -1.3347 0 -0.644672 -1.22612 0 
-0.644085 -1.10862 0 -0.609328 -0.989491 0 -0.554717 -0.873216 0 
-0.501054 -0.772743 0 -0.454203 -0.681025 0 -0.408613 -0.589123 0 
-0.35083 -0.475459 0 -0.304643 -0.381231 0 -0.26479 -0.284097 0 
-0.227027 -0.173324 0 -0.190314 -0.054842 0 -0.171292 0.066315 0 
-0.182377 0.195283 0 -0.243052 0.307747 0 -0.362984 0.381646 0 
-0.482852 0.416918 0 -0.633043 0.443504 0 -0.783751 0.458346 0 
-0.935161 0.472234 0 -1.0875 0.500419 0 -1.17961 0.54268 0 
-1.26021 0.634681 0 -1.24599 0.786044 0 -1.18316 0.845425 0 
-1.06323 0.886856 0 -0.91164 0.891128 0 -0.760229 0.875303 0 
-0.60919 0.851671 0 -0.458668 0.831677 0 -0.338648 0.824934 0 
-0.238124 0.853566 0 -0.182144 0.933112 0 -0.167054 1.08147 0 
-0.17475 1.23332 0 -0.17605 1.38303 0 -0.162838 1.50077 0 
-0.106058 1.61172 0 
LINES 94 282
2 0 1 
2 1 2 
2 2 3 
2 3 4 
2 4 5 
2 5 6 
2 6 7 
2 7 8 
2 8 9 
2 9 10 
2 10 11 
2 11 12 
2 12 13 
2 13 14 
2 14 15 
2 15 16 
2 16 17 
2 17 18 
2 18 19 
2 19 20 
2 20 21 
2 21 22 
2 22 23 
2 23 24 
2 24 25 
2 25 26 
2 26 27 
2 27 28 
2 28 29 
2 29 30 
2 30 31 
2 31 32 
2 32 33 
2 33 34 
2 34 35 
2 35 36 
2 36 37 
2 37 38 
2 38 39 
2 39 40 
2 40 41 
2 41 42 
2 42 43 
2 43 44 
2 44 45 
2 45 46 
2 46 47 
2 47 48 
2 48 49 
2 49 50 
2 50 51 
2 51 52 
2 52 53 
2 53 54 
2 54 55 
2 55 56 
2 56 57 
2 57 58 
2 58 59 
2 59 60 
2 60 61 
2 61 62 
2 62 63 
2 63 64 
2 64 65 
2 65 66 
2 66 67 
2 67 68 
2 68 69 
2 69 70 
2 70 71 
2 71 72 
2 72 73 
2 73 74 
2 74 75 
2 75 76 
2 76 77 
2 77 78 
2 78 79 
2 79 80 
2 80 81 
2 81 82 
2 82 83 
2 83 84 
2 84 85 
2 85 86 
2 86 87 
2 87 88 
2 88 89 
2 89 90 
2 90 91 
2 91 92 
2 92 93 
2 93 0 

POINT_DATA 94
SCALARS signal float
LOOKUP_TABLE default
0 0 0 0 0 0 0 0 0 
0 0 0 0 0 0 0 0 0 
0 0 0 0 0 0 0 0 0 
0 0 0 0 0 0 0 0 0 
0 0 0 0 0 0 0 0 0 
0 0 0 0 0 0 0 0 0 
0 0 0 0 0 0 0 0 0 
0 0 0 0 0 0 0 0 0 
0 0 0 0 0 0 0 0 0 
0 0 0 0 0 0 0 0 0 
0 0 0 0 
